**--------------------------------------------------------------------**
** GMFRR021.DAT: Assign grid-block property through PDD data          **
**--------------------------------------------------------------------**
**--------------------------------------------------------------------**
**                                                                    **
** FILE:  GMFRR021.DAT                                                **
**                                                                    **
** MODEL: CORNER-POINT 314x14x50 GRID   USE OF *PDD AND *PDD_DATA     **
**        6 COMPONENTS                  FOR ASSIGING CERTAIN GRID-    **
**        FIELD UNITS                   BLOCK PROPERTIES.             **
**                                                                    **
**--------------------------------------------------------------------**
**                                                                    **
** This template data set is constructed to demonstrate distributed   **
** property data input and its usage, especially in hydraulically     **
** fractured models. Keyword *PDD is used to input property data at   **
** discrete locations defined by coordinate offsets. The property     **
** data could then be used in HF templates via keyword *PDD_DATA.     **
** Some restrictions apply, please see keyword description in manual  **
** pages.                                                             **
**                                                                    **
**--------------------------------------------------------------------**
** CONTACT CMG at (403)531-1300 or support@cmgl.ca                    **
**--------------------------------------------------------------------**

*RESULTS *SIMULATOR *GEM

*TITLE1 'Hydraulic Fracture Modeling'
*TITLE2 'Grid-Block Property through PDD data'

*INUNIT *FIELD
*WSRF *WELL 1
*WSRF *GRID *TIME
*OUTSRF *GRID *SO *SG *SW *PRES *PERM
*OUTSRF *RES *NONE
*WPRN *GRID 0
*OUTPRN *GRID *NONE
*OUTPRN *RES *NONE
*WRST 0

**  Distance units: ft 
RESULTS XOFFSET       -5045.3777
RESULTS YOFFSET        2846.2117
RESULTS ROTATION         -26.1789  **  (DEGREES)
RESULTS AXES-DIRECTIONS 1.0 -1.0 1.0
RESULTS SUBMODEL_REFSS 0
** ***************************************************************************
** Definition of fundamental corner point grid
** ***************************************************************************
GRID CORNER 318 14 50
DI IVAR 318*10
DJ JVAR  14*20
ZCORN  
 17808*13200.0000 35616*13205.0000 35616*13210.0000 35616*13215.0000 35616*13220.0000 35616*13225.0000
 35616*13230.0000 35616*13235.0000 35616*13240.0000 35616*13245.0000 35616*13250.0000 35616*13255.0000
 35616*13260.0000 35616*13265.0000 35616*13270.0000 35616*13275.0000 35616*13280.0000 35616*13285.0000
 35616*13290.0000 35616*13295.0000 35616*13300.0000 35616*13305.0000 35616*13310.0000 35616*13315.0000
 35616*13320.0000 35616*13325.0000 35616*13330.0000 35616*13335.0000 35616*13340.0000 35616*13345.0000
 35616*13350.0000 35616*13355.0000 35616*13360.0000 35616*13365.0000 35616*13370.0000 35616*13375.0000
 35616*13380.0000 35616*13385.0000 35616*13390.0000 35616*13395.0000 35616*13400.0000 35616*13405.0000
 35616*13410.0000 35616*13415.0000 35616*13420.0000 35616*13425.0000 35616*13430.0000 35616*13435.0000
 35616*13440.0000 35616*13445.0000 17808*13450.0000

*PLNRFRAC_TEMPLATE 'Template (Well_1_1)'
   *PLNR_REFINE *INTO  5 5 1 2
      *BWHLEN 250 230
      *JDIR
      *INNERWIDTH 2
      *LAYERSUP 14
      *LAYERSDOWN 13
*END_TEMPLATE

*PLNRFRAC_TEMPLATE 'Template (Well_1_1) (1)'
   *PLNR_REFINE *INTO  5 5 1 2
      *BWHLEN 270 250
      *JDIR
      *INNERWIDTH 2
      *LAYERSUP 17
      *LAYERSDOWN 14
*END_TEMPLATE

*PLNRFRAC_TEMPLATE 'Template (Well_1_1) (2)'
   *PLNR_REFINE *INTO  5 5 1 2
      *BWHLEN 250 230
      *JDIR
      *INNERWIDTH 2
      *LAYERSUP 22
      *LAYERSDOWN 13
*END_TEMPLATE

*PLNRFRAC_TEMPLATE 'Template (Well_1_2)'
   *PLNR_REFINE *INTO  5 5 1 2
      *BWHLEN 170 150
      *JDIR
      *INNERWIDTH 2
      *LAYERSUP 16
      *LAYERSDOWN 15
*END_TEMPLATE

*PLNRFRAC_TEMPLATE 'Template (Well_1_2) (1)'
   *PLNR_REFINE *INTO  5 5 1 2
      *BWHLEN 370 350
      *JDIR
      *INNERWIDTH 2
      *LAYERSUP 24
      *LAYERSDOWN 13
*END_TEMPLATE

*PLNRFRAC_TEMPLATE 'Template (Well_1_3)'
   *PLNR_REFINE *INTO  5 5 1 2
      *BWHLEN 170 150
      *JDIR
      *INNERWIDTH 2
      *LAYERSUP 17
      *LAYERSDOWN 15
*END_TEMPLATE

*PLNRFRAC_TEMPLATE 'Template (Well_1_3) (1)'
   *PLNR_REFINE *INTO  5 5 1 2
      *BWHLEN 170
      *JDIR
      *INNERWIDTH 2
      *LAYERSUP 13
      *LAYERSDOWN 15
*END_TEMPLATE

*PLNRFRAC_TEMPLATE 'Template (Well_1_3) (2)'
   *PLNR_REFINE *INTO  5 5 1 2
      *BWHLEN 390 370
      *JDIR
      *INNERWIDTH 2
      *LAYERSUP 24
      *LAYERSDOWN 14
*END_TEMPLATE

*PLNRFRAC_TEMPLATE 'Template (Well_1_4)'
   *PLNR_REFINE *INTO  5 5 1 2
      *BWHLEN 170
      *JDIR
      *INNERWIDTH 2
      *LAYERSUP 17
      *LAYERSDOWN 15
*END_TEMPLATE

*PLNRFRAC_TEMPLATE 'Template (Well_1_4) (1)'
   *PLNR_REFINE *INTO  5 5 1 2
      *BWHLEN 190 150
      *JDIR
      *INNERWIDTH 2
      *LAYERSUP 9
      *LAYERSDOWN 12
*END_TEMPLATE

*PLNRFRAC_TEMPLATE 'Template (Well_1_5)'
   *PLNR_REFINE *INTO  5 5 1 2
      *BWHLEN 250
      *JDIR
      *INNERWIDTH 2
      *LAYERSUP 14
      *LAYERSDOWN 13
*END_TEMPLATE

*PLNRFRAC_TEMPLATE 'Template (Well_1_5) (1)'
   *PLNR_REFINE *INTO  5 5 1 2
      *BWHLEN 150 130
      *JDIR
      *INNERWIDTH 2
      *LAYERSUP 10
      *LAYERSDOWN 15
*END_TEMPLATE

*PLNRFRAC 'Template (Well_1_1)' 48,8,35
   *BG_NAME 'Well_1 - GFrac_1'
   *SBG_FZT 'Well_1 - GFrac_1_FZT'
*PLNRFRAC 'Template (Well_1_2)' 45,8,35
   *BG_NAME 'Well_1 - GFrac_2'
   *SBG_FZT 'Well_1 - GFrac_2_FZT'
*PLNRFRAC 'Template (Well_1_3)' 42,8,35
   *BG_NAME 'Well_1 - GFrac_3'
   *SBG_FZT 'Well_1 - GFrac_3_FZT'
*PLNRFRAC 'Template (Well_1_4)' 39,8,35
   *BG_NAME 'Well_1 - GFrac_4'
   *SBG_FZT 'Well_1 - GFrac_4_FZT'
*PLNRFRAC 'Template (Well_1_5)' 36,8,35
   *BG_NAME 'Well_1 - GFrac_5'
   *SBG_FZT 'Well_1 - GFrac_5_FZT'

*PLNRFRAC 'Template (Well_1_1) (1)' 63,8,36
   *BG_NAME 'Well_1 - GFrac_6'
   *SBG_FZT 'Well_1 - GFrac_6_FZT'
*PLNRFRAC 'Template (Well_1_3) (1)' 57,8,35
   *BG_NAME 'Well_1 - GFrac_7'
   *SBG_FZT 'Well_1 - GFrac_7_FZT'
*PLNRFRAC 'Template (Well_1_4) (1)' 54,8,35
   *BG_NAME 'Well_1 - GFrac_8'
   *SBG_FZT 'Well_1 - GFrac_8_FZT'
*PLNRFRAC 'Template (Well_1_5) (1)' 51,8,35
   *BG_NAME 'Well_1 - GFrac_9'
   *SBG_FZT 'Well_1 - GFrac_9_FZT'

*PLNRFRAC 'Template (Well_1_1) (2)' 93,7,37
   *BG_NAME 'Well_1 - GFrac_10'
   *SBG_FZT 'Well_1 - GFrac_10_FZT'
*PLNRFRAC 'Template (Well_1_2) (1)' 83,8,37
   *BG_NAME 'Well_1 - GFrac_11'
   *SBG_FZT 'Well_1 - GFrac_11_FZT'
*PLNRFRAC 'Template (Well_1_3) (2)' 73,8,36
   *BG_NAME 'Well_1 - GFrac_12'
   *SBG_FZT 'Well_1 - GFrac_12_FZT'

*NFZG-ALIGN ON

*** number is 1692
PDD 'Well_1_1'
  5.0000 -240.0 0.0170 -25.00 -240.0 0.0177 40.00 -220.0 0.0172 35.00 -220.0 0.0187 30.00 -220.0 0.0187 20.00 -220.0 0.0179 15.00 -220.0 0.0209 5.0000 -220.0 0.0231 0.0 -220.0 0.0202 -10.0000 -220.0 0.0213 
  -20.00 -220.0 0.0199 -25.00 -220.0 0.0238 -30.00 -220.0 0.0194 -35.00 -220.0 0.0170 -40.00 -220.0 0.0170 45.00 -200.0 0.0221 40.00 -200.0 0.0238 35.00 -200.0 0.0259 30.00 -200.0 0.0260 25.00 -200.0 0.0203 
  20.00 -200.0 0.0248 15.00 -200.0 0.0289 10.0000 -200.0 0.0214 5.0000 -200.0 0.0317 0.0 -200.0 0.0279 -5.0000 -200.0 0.0173 -10.0000 -200.0 0.0295 -15.00 -200.0 0.0218 -20.00 -200.0 0.0276 -25.00 -200.0 0.0325 
  -30.00 -200.0 0.0267 -35.00 -200.0 0.0234 -40.00 -200.0 0.0234 -45.00 -200.0 0.0194 50.00 -180.0 0.0207 45.00 -180.0 0.0309 40.00 -180.0 0.0333 35.00 -180.0 0.0364 30.00 -180.0 0.0367 25.00 -180.0 0.0288 
  20.00 -180.0 0.0349 15.00 -180.0 0.0405 10.0000 -180.0 0.0304 5.0000 -180.0 0.0443 0.0 -180.0 0.0390 -5.0000 -180.0 0.0253 -10.0000 -180.0 0.0415 -15.00 -180.0 0.0311 -20.00 -180.0 0.0388 -25.00 -180.0 0.0451 
  -30.00 -180.0 0.0369 -35.00 -180.0 0.0325 -40.00 -180.0 0.0323 -45.00 -180.0 0.0270 -50.00 -180.0 0.0215 -55.00 -180.0 0.0170 55.00 -160.0 0.0225 50.00 -160.0 0.0295 45.00 -160.0 0.0432 40.00 -160.0 0.0472 
  35.00 -160.0 0.0515 30.00 -160.0 0.0525 25.00 -160.0 0.0413 20.00 -160.0 0.0498 15.00 -160.0 0.0580 10.0000 -160.0 0.0439 5.0000 -160.0 0.0630 0.0 -160.0 0.0555 -5.0000 -160.0 0.0377 -10.0000 -160.0 0.0595 
  -15.00 -160.0 0.0448 -20.00 -160.0 0.0555 -25.00 -160.0 0.0635 -30.00 -160.0 0.0520 -35.00 -160.0 0.0457 -40.00 -160.0 0.0454 -45.00 -160.0 0.0378 -50.00 -160.0 0.0303 -55.00 -160.0 0.0243 -60.00 -160.0 0.0205 
  -65.00 -160.0 0.0171 60.00 -140.0 0.0186 55.00 -140.0 0.0325 50.00 -140.0 0.0419 45.00 -140.0 0.0615 40.00 -140.0 0.0675 35.00 -140.0 0.0740 30.00 -140.0 0.0760 25.00 -140.0 0.0605 20.00 -140.0 0.0725 
  15.00 -140.0 0.0840 10.0000 -140.0 0.0645 5.0000 -140.0 0.0910 0.0 -140.0 0.0810 -5.0000 -140.0 0.0575 -10.0000 -140.0 0.0870 -15.00 -140.0 0.0660 -20.00 -140.0 0.0805 -25.00 -140.0 0.0910 -30.00 -140.0 0.0745 
  -35.00 -140.0 0.0650 -40.00 -140.0 0.0645 -45.00 -140.0 0.0535 -50.00 -140.0 0.0428 -55.00 -140.0 0.0342 -60.00 -140.0 0.0289 -65.00 -140.0 0.0239 60.00 -120.0 0.0243 55.00 -120.0 0.0461 50.00 -120.0 0.0635 
  45.00 -120.0 0.0865 40.00 -120.0 0.0970 35.00 -120.0 0.1065 30.00 -120.0 0.1020 25.00 -120.0 0.0935 20.00 -120.0 0.1115 15.00 -120.0 0.1145 10.0000 -120.0 0.1075 5.0000 -120.0 0.1315 0.0 -120.0 0.1080 
  -5.0000 -120.0 0.1005 -10.0000 -120.0 0.1210 -15.00 -120.0 0.1070 -20.00 -120.0 0.1260 -25.00 -120.0 0.1270 -30.00 -120.0 0.1065 -35.00 -120.0 0.0965 -40.00 -120.0 0.0900 -45.00 -120.0 0.0735 -50.00 -120.0 0.0595 
  -55.00 -120.0 0.0490 -60.00 -120.0 0.0416 -65.00 -120.0 0.0318 -70.00 -120.0 0.0187 65.00 -100.00 0.0194 60.00 -100.00 0.0401 55.00 -100.00 0.0655 50.00 -100.00 0.0955 45.00 -100.00 0.1230 40.00 -100.00 0.1415 
  35.00 -100.00 0.1545 30.00 -100.00 0.1390 25.00 -100.00 0.1475 20.00 -100.00 0.1755 15.00 -100.00 0.1590 10.0000 -100.00 0.1820 5.0000 -100.00 0.1935 0.0 -100.00 0.1430 -5.0000 -100.00 0.1765 -10.0000 -100.00 0.1715 
  -15.00 -100.00 0.1770 -20.00 -100.00 0.2010 -25.00 -100.00 0.1815 -30.00 -100.00 0.1550 -35.00 -100.00 0.1450 -40.00 -100.00 0.1270 -45.00 -100.00 0.1020 -50.00 -100.00 0.0825 -55.00 -100.00 0.0695 -60.00 -100.00 0.0590 
  -65.00 -100.00 0.0407 -70.00 -100.00 0.0232 70.00 -80.00 0.0168 65.00 -80.00 0.0317 60.00 -80.00 0.0605 55.00 -80.00 0.0905 50.00 -80.00 0.1435 45.00 -80.00 0.1760 40.00 -80.00 0.2090 35.00 -80.00 0.2285 
  30.00 -80.00 0.1935 25.00 -80.00 0.2390 20.00 -80.00 0.2855 15.00 -80.00 0.2280 10.0000 -80.00 0.3185 5.0000 -80.00 0.2740 0.0 -80.00 0.1390 -5.0000 -80.00 0.3080 -10.0000 -80.00 0.2495 -15.00 -80.00 0.3005 
  -20.00 -80.00 0.3300 -25.00 -80.00 0.2665 -30.00 -80.00 0.2310 -35.00 -80.00 0.2215 -40.00 -80.00 0.1805 -45.00 -80.00 0.1425 -50.00 -80.00 0.1140 -55.00 -80.00 0.0975 -60.00 -80.00 0.0815 -65.00 -80.00 0.0505 
  -70.00 -80.00 0.0296 70.00 -60.00 0.0237 65.00 -60.00 0.0466 60.00 -60.00 0.0835 55.00 -60.00 0.1240 50.00 -60.00 0.2025 45.00 -60.00 0.2545 40.00 -60.00 0.3110 35.00 -60.00 0.3495 30.00 -60.00 0.3035 
  25.00 -60.00 0.3840 20.00 -60.00 0.4665 15.00 -60.00 0.3760 10.0000 -60.00 0.5105 5.0000 -60.00 0.3435 0.0 -60.00 0.0715 -5.0000 -60.00 0.4285 -10.0000 -60.00 0.4030 -15.00 -60.00 0.4885 -20.00 -60.00 0.5295 
  -25.00 -60.00 0.4180 -30.00 -60.00 0.3540 -35.00 -60.00 0.3315 -40.00 -60.00 0.2620 -45.00 -60.00 0.2005 -50.00 -60.00 0.1555 -55.00 -60.00 0.1295 -60.00 -60.00 0.1055 -65.00 -60.00 0.0635 -70.00 -60.00 0.0362 
  70.00 -40.00 0.0302 65.00 -40.00 0.0600 60.00 -40.00 0.1050 55.00 -40.00 0.1585 50.00 -40.00 0.2680 45.00 -40.00 0.3495 40.00 -40.00 0.4460 35.00 -40.00 0.5225 30.00 -40.00 0.4735 25.00 -40.00 0.6225 
  20.00 -40.00 0.7830 15.00 -40.00 0.6470 10.0000 -40.00 0.8610 5.0000 -40.00 0.4365 0.0 -40.00 0.0292 -5.0000 -40.00 0.5860 -10.0000 -40.00 0.6715 -15.00 -40.00 0.8155 -20.00 -40.00 0.8585 -25.00 -40.00 0.6535 
  -30.00 -40.00 0.5325 -35.00 -40.00 0.4785 -40.00 -40.00 0.3620 -45.00 -40.00 0.2660 -50.00 -40.00 0.1990 -55.00 -40.00 0.1610 -60.00 -40.00 0.1275 -65.00 -40.00 0.0740 -70.00 -40.00 0.0411 70.00 -20.00 0.0343 
  65.00 -20.00 0.0670 60.00 -20.00 0.1170 55.00 -20.00 0.1820 50.00 -20.00 0.3175 45.00 -20.00 0.4285 40.00 -20.00 0.5665 35.00 -20.00 0.6915 30.00 -20.00 0.6595 25.00 -20.00 0.9210 20.00 -20.00 1.2420 
  15.00 -20.00 1.1060 10.0000 -20.00 1.5775 5.0000 -20.00 0.6945 0.0 -20.00 0.0194 -5.0000 -20.00 0.8520 -10.0000 -20.00 1.1265 -15.00 -20.00 1.2915 -20.00 -20.00 1.2750 -25.00 -20.00 0.9135 -30.00 -20.00 0.7045 
  -35.00 -20.00 0.6020 -40.00 -20.00 0.4345 -45.00 -20.00 0.3075 -50.00 -20.00 0.2245 -55.00 -20.00 0.1780 -60.00 -20.00 0.1375 -65.00 -20.00 0.0775 -70.00 -20.00 0.0411 70.00 0.0 0.0343 65.00 0.0 0.0670 
  60.00 0.0 0.1200 55.00 0.0 0.1820 50.00 0.0 0.3175 45.00 0.0 0.4285 40.00 0.0 0.5620 35.00 0.0 0.6840 30.00 0.0 0.6515 25.00 0.0 0.9100 20.00 0.0 1.2325 15.00 0.0 1.1060 
  10.0000 0.0 1.6030 5.0000 0.0 0.6110 -5.0000 0.0 0.7100 -10.0000 0.0 1.1400 -15.00 0.0 1.2915 -20.00 0.0 1.2640 -25.00 0.0 0.8895 -30.00 0.0 0.6780 -35.00 0.0 0.5765 -40.00 0.0 0.4155 
  -45.00 0.0 0.2945 -50.00 0.0 0.2145 -55.00 0.0 0.1685 -60.00 0.0 0.1280 -65.00 0.0 0.0700 -70.00 0.0 0.0411 70.00 20.00 0.0312 65.00 20.00 0.0630 60.00 20.00 0.1075 55.00 20.00 0.1600 
  50.00 20.00 0.2680 45.00 20.00 0.3470 40.00 20.00 0.4415 35.00 20.00 0.5170 30.00 20.00 0.4705 25.00 20.00 0.6215 20.00 20.00 0.7850 15.00 20.00 0.6490 10.0000 20.00 0.8465 5.0000 20.00 0.3675 
  -5.0000 20.00 0.4445 -10.0000 20.00 0.6600 -15.00 20.00 0.8170 -20.00 20.00 0.8610 -25.00 20.00 0.6505 -30.00 20.00 0.5240 -35.00 20.00 0.4640 -40.00 20.00 0.3450 -45.00 20.00 0.2505 -50.00 20.00 0.1870 
  -55.00 20.00 0.1500 -60.00 20.00 0.1170 -65.00 20.00 0.0665 -70.00 20.00 0.0371 70.00 40.00 0.0249 65.00 40.00 0.0500 60.00 40.00 0.0875 55.00 40.00 0.1270 50.00 40.00 0.2045 45.00 40.00 0.2545 
  40.00 40.00 0.3105 35.00 40.00 0.3495 30.00 40.00 0.3050 25.00 40.00 0.3865 20.00 40.00 0.4710 15.00 40.00 0.3780 10.0000 40.00 0.4915 5.0000 40.00 0.2765 0.0 40.00 0.0256 -5.0000 40.00 0.3245 
  -10.0000 40.00 0.3935 -15.00 40.00 0.4910 -20.00 40.00 0.5345 -25.00 40.00 0.4205 -30.00 40.00 0.3540 -35.00 40.00 0.3280 -40.00 40.00 0.2555 -45.00 40.00 0.1920 -50.00 40.00 0.1475 -55.00 40.00 0.1215 
  -60.00 40.00 0.0980 -65.00 40.00 0.0580 -70.00 40.00 0.0333 70.00 60.00 0.0180 65.00 60.00 0.0347 60.00 60.00 0.0665 55.00 60.00 0.0945 50.00 60.00 0.1480 45.00 60.00 0.1785 40.00 60.00 0.2110 
  35.00 60.00 0.2305 30.00 60.00 0.1955 25.00 60.00 0.2425 20.00 60.00 0.2905 15.00 60.00 0.2310 10.0000 60.00 0.3150 5.0000 60.00 0.2480 0.0 60.00 0.0845 -5.0000 60.00 0.2660 -10.0000 60.00 0.2490 
  -15.00 60.00 0.3045 -20.00 60.00 0.3360 -25.00 60.00 0.2695 -30.00 60.00 0.2320 -35.00 60.00 0.2220 -40.00 60.00 0.1785 -45.00 60.00 0.1390 -50.00 60.00 0.1100 -55.00 60.00 0.0930 -60.00 60.00 0.0770 
  -65.00 60.00 0.0468 -70.00 60.00 0.0278 65.00 80.00 0.0265 60.00 80.00 0.0486 55.00 80.00 0.0685 50.00 80.00 0.1055 45.00 80.00 0.1240 40.00 80.00 0.1430 35.00 80.00 0.1530 30.00 80.00 0.1275 
  25.00 80.00 0.1565 20.00 80.00 0.1855 15.00 80.00 0.1470 10.0000 80.00 0.2050 5.0000 80.00 0.1895 0.0 80.00 0.1195 -5.0000 80.00 0.1985 -10.0000 80.00 0.1610 -15.00 80.00 0.1955 -20.00 80.00 0.2170 
  -25.00 80.00 0.1760 -30.00 80.00 0.1540 -35.00 80.00 0.1500 -40.00 80.00 0.1230 -45.00 80.00 0.0985 -50.00 80.00 0.0795 -55.00 80.00 0.0690 -60.00 80.00 0.0585 -65.00 80.00 0.0360 -70.00 80.00 0.0216 
  65.00 100.00 0.0191 60.00 100.00 0.0351 55.00 100.00 0.0492 50.00 100.00 0.0745 45.00 100.00 0.0860 40.00 100.00 0.0980 35.00 100.00 0.1035 30.00 100.00 0.0855 25.00 100.00 0.1040 20.00 100.00 0.1225 
  15.00 100.00 0.0965 10.0000 100.00 0.1360 5.0000 100.00 0.1285 0.0 100.00 0.0885 -5.0000 100.00 0.1360 -10.0000 100.00 0.1065 -15.00 100.00 0.1285 -20.00 100.00 0.1440 -25.00 100.00 0.1180 -30.00 100.00 0.1040 
  -35.00 100.00 0.1025 -40.00 100.00 0.0855 -45.00 100.00 0.0690 -50.00 100.00 0.0570 -55.00 100.00 0.0505 -60.00 100.00 0.0432 -65.00 100.00 0.0269 -70.00 100.00 0.0165 60.00 120.0 0.0251 55.00 120.0 0.0351 
  50.00 120.0 0.0530 45.00 120.0 0.0605 40.00 120.0 0.0685 35.00 120.0 0.0715 30.00 120.0 0.0580 25.00 120.0 0.0705 20.00 120.0 0.0830 15.00 120.0 0.0650 10.0000 120.0 0.0925 5.0000 120.0 0.0870 
  0.0 120.0 0.0585 -5.0000 120.0 0.0930 -10.0000 120.0 0.0715 -15.00 120.0 0.0870 -20.00 120.0 0.0980 -25.00 120.0 0.0810 -30.00 120.0 0.0715 -35.00 120.0 0.0715 -40.00 120.0 0.0600 -45.00 120.0 0.0490 
  -50.00 120.0 0.0407 -55.00 120.0 0.0364 -60.00 120.0 0.0317 -65.00 120.0 0.0199 60.00 140.0 0.0172 55.00 140.0 0.0250 50.00 140.0 0.0380 45.00 140.0 0.0430 40.00 140.0 0.0481 35.00 140.0 0.0500 
  30.00 140.0 0.0405 25.00 140.0 0.0492 20.00 140.0 0.0575 15.00 140.0 0.0448 10.0000 140.0 0.0640 5.0000 140.0 0.0600 0.0 140.0 0.0386 -5.0000 140.0 0.0645 -10.0000 140.0 0.0490 -15.00 140.0 0.0600 
  -20.00 140.0 0.0685 -25.00 140.0 0.0565 -30.00 140.0 0.0505 -35.00 140.0 0.0505 -40.00 140.0 0.0426 -45.00 140.0 0.0349 -50.00 140.0 0.0291 -55.00 140.0 0.0261 -60.00 140.0 0.0231 55.00 160.0 0.0177 
  50.00 160.0 0.0274 45.00 160.0 0.0308 40.00 160.0 0.0344 35.00 160.0 0.0355 30.00 160.0 0.0286 25.00 160.0 0.0348 20.00 160.0 0.0408 15.00 160.0 0.0315 10.0000 160.0 0.0452 5.0000 160.0 0.0421 
  0.0 160.0 0.0260 -5.0000 160.0 0.0454 -10.0000 160.0 0.0343 -15.00 160.0 0.0421 -20.00 160.0 0.0488 -25.00 160.0 0.0404 -30.00 160.0 0.0359 -35.00 160.0 0.0360 -40.00 160.0 0.0305 -45.00 160.0 0.0251 
  -50.00 160.0 0.0209 -55.00 160.0 0.0188 -60.00 160.0 0.0168 50.00 180.0 0.0199 45.00 180.0 0.0223 40.00 180.0 0.0248 35.00 180.0 0.0256 30.00 180.0 0.0204 25.00 180.0 0.0250 20.00 180.0 0.0293 
  15.00 180.0 0.0225 10.0000 180.0 0.0325 5.0000 180.0 0.0301 0.0 180.0 0.0177 -5.0000 180.0 0.0325 -10.0000 180.0 0.0244 -15.00 180.0 0.0302 -20.00 180.0 0.0355 -25.00 180.0 0.0293 -30.00 180.0 0.0259 
  -35.00 180.0 0.0261 -40.00 180.0 0.0222 -45.00 180.0 0.0181 45.00 200.0 0.0162 40.00 200.0 0.0181 35.00 200.0 0.0185 25.00 200.0 0.0181 20.00 200.0 0.0214 15.00 200.0 0.0163 10.0000 200.0 0.0237 
  5.0000 200.0 0.0218 -5.0000 200.0 0.0238 -10.0000 200.0 0.0174 -15.00 200.0 0.0220 -20.00 200.0 0.0260 -25.00 200.0 0.0214 -30.00 200.0 0.0190 -35.00 200.0 0.0192 -40.00 200.0 0.0161 10.0000 220.0 0.0176 
  -5.0000 220.0 0.0176 -15.00 220.0 0.0161 -20.00 220.0 0.0194 
  10.0000 20.00 5.0000 
END-PDD
PDD 'Well_1_2' 1239
  70.00 -160.0 0.0272 20.00 -160.0 0.0226 10.0000 -160.0 0.0238 5.0000 -160.0 0.0231 -5.0000 -160.0 0.0259 -15.00 -160.0 0.0217 -20.00 -160.0 0.0249 -25.00 -160.0 0.0202 50.00 -140.0 0.0194 45.00 -140.0 0.0211 
  40.00 -140.0 0.0231 35.00 -140.0 0.0250 25.00 -140.0 0.0257 20.00 -140.0 0.0330 15.00 -140.0 0.0221 10.0000 -140.0 0.0348 5.0000 -140.0 0.0339 0.0 -140.0 0.0200 -5.0000 -140.0 0.0369 -10.0000 -140.0 0.0252 
  -15.00 -140.0 0.0317 -20.00 -140.0 0.0363 -25.00 -140.0 0.0293 -30.00 -140.0 0.0262 -35.00 -140.0 0.0250 -40.00 -140.0 0.0220 -45.00 -140.0 0.0196 50.00 -120.0 0.0282 45.00 -120.0 0.0307 40.00 -120.0 0.0338 
  35.00 -120.0 0.0369 30.00 -120.0 0.0279 25.00 -120.0 0.0384 20.00 -120.0 0.0491 15.00 -120.0 0.0333 10.0000 -120.0 0.0520 5.0000 -120.0 0.0510 0.0 -120.0 0.0320 -5.0000 -120.0 0.0545 -10.0000 -120.0 0.0380 
  -15.00 -120.0 0.0472 -20.00 -120.0 0.0540 -25.00 -120.0 0.0436 -30.00 -120.0 0.0391 -35.00 -120.0 0.0372 -40.00 -120.0 0.0324 -45.00 -120.0 0.0284 -50.00 -120.0 0.0218 -55.00 -120.0 0.0198 -60.00 -120.0 0.0203 
  -70.00 -120.0 0.0262 65.00 -100.00 0.0200 60.00 -100.00 0.0226 55.00 -100.00 0.0256 50.00 -100.00 0.0408 45.00 -100.00 0.0451 40.00 -100.00 0.0505 35.00 -100.00 0.0560 30.00 -100.00 0.0427 25.00 -100.00 0.0590 
  20.00 -100.00 0.0750 15.00 -100.00 0.0515 10.0000 -100.00 0.0795 5.0000 -100.00 0.0785 0.0 -100.00 0.0520 -5.0000 -100.00 0.0830 -10.0000 -100.00 0.0590 -15.00 -100.00 0.0725 -20.00 -100.00 0.0825 -25.00 -100.00 0.0665 
  -30.00 -100.00 0.0595 -35.00 -100.00 0.0565 -40.00 -100.00 0.0483 -45.00 -100.00 0.0416 -50.00 -100.00 0.0314 -55.00 -100.00 0.0280 -60.00 -100.00 0.0280 -70.00 -100.00 0.0404 65.00 -80.00 0.0246 60.00 -80.00 0.0316 
  55.00 -80.00 0.0358 50.00 -80.00 0.0590 45.00 -80.00 0.0665 40.00 -80.00 0.0760 35.00 -80.00 0.0860 30.00 -80.00 0.0670 25.00 -80.00 0.0930 20.00 -80.00 0.1190 15.00 -80.00 0.0825 10.0000 -80.00 0.1265 
  5.0000 -80.00 0.1245 0.0 -80.00 0.0890 -5.0000 -80.00 0.1335 -10.0000 -80.00 0.0945 -15.00 -80.00 0.1145 -20.00 -80.00 0.1290 -25.00 -80.00 0.1030 -30.00 -80.00 0.0915 -35.00 -80.00 0.0855 -40.00 -80.00 0.0720 
  -45.00 -80.00 0.0605 -50.00 -80.00 0.0447 -55.00 -80.00 0.0388 -60.00 -80.00 0.0377 -65.00 -80.00 0.0218 -70.00 -80.00 0.0515 80.00 -60.00 0.0251 65.00 -60.00 0.0342 60.00 -60.00 0.0420 55.00 -60.00 0.0485 
  50.00 -60.00 0.0835 45.00 -60.00 0.0975 40.00 -60.00 0.1155 35.00 -60.00 0.1335 30.00 -60.00 0.1070 25.00 -60.00 0.1505 20.00 -60.00 0.1950 15.00 -60.00 0.1375 10.0000 -60.00 0.2165 5.0000 -60.00 0.2140 
  0.0 -60.00 0.1430 -5.0000 -60.00 0.2170 -10.0000 -60.00 0.1585 -15.00 -60.00 0.1880 -20.00 -60.00 0.2080 -25.00 -60.00 0.1640 -30.00 -60.00 0.1425 -35.00 -60.00 0.1305 -40.00 -60.00 0.1065 -45.00 -60.00 0.0870 
  -50.00 -60.00 0.0620 -55.00 -60.00 0.0525 -60.00 -60.00 0.0494 -65.00 -60.00 0.0276 -70.00 -60.00 0.0590 80.00 -40.00 0.0323 70.00 -40.00 0.0448 65.00 -40.00 0.0470 60.00 -40.00 0.0515 55.00 -40.00 0.0615 
  50.00 -40.00 0.1120 45.00 -40.00 0.1360 40.00 -40.00 0.1685 35.00 -40.00 0.2030 30.00 -40.00 0.1700 25.00 -40.00 0.2470 20.00 -40.00 0.3290 15.00 -40.00 0.2475 10.0000 -40.00 0.3600 5.0000 -40.00 0.3520 
  0.0 -40.00 0.3530 -5.0000 -40.00 0.3630 -10.0000 -40.00 0.2610 -15.00 -40.00 0.3240 -20.00 -40.00 0.3420 -25.00 -40.00 0.2595 -30.00 -40.00 0.2170 -35.00 -40.00 0.1910 -40.00 -40.00 0.1500 -45.00 -40.00 0.1170 
  -50.00 -40.00 0.0810 -55.00 -40.00 0.0670 -60.00 -40.00 0.0620 -65.00 -40.00 0.0338 -70.00 -40.00 0.0660 80.00 -20.00 0.0585 70.00 -20.00 0.0364 65.00 -20.00 0.0585 60.00 -20.00 0.0610 55.00 -20.00 0.0735 
  50.00 -20.00 0.1380 45.00 -20.00 0.1695 40.00 -20.00 0.2170 35.00 -20.00 0.2725 30.00 -20.00 0.2410 25.00 -20.00 0.3705 20.00 -20.00 0.5320 15.00 -20.00 0.4230 10.0000 -20.00 0.6485 5.0000 -20.00 1.0630 
  0.0 -20.00 1.2795 -5.0000 -20.00 1.0680 -10.0000 -20.00 0.4320 -15.00 -20.00 0.5150 -20.00 -20.00 0.5230 -25.00 -20.00 0.3700 -30.00 -20.00 0.2915 -35.00 -20.00 0.2450 -40.00 -20.00 0.1840 -45.00 -20.00 0.1390 
  -50.00 -20.00 0.0945 -55.00 -20.00 0.0775 -60.00 -20.00 0.0710 -65.00 -20.00 0.0382 -70.00 -20.00 0.0620 -80.00 -20.00 0.0197 80.00 0.0 0.0675 75.00 0.0 0.0262 70.00 0.0 0.0424 65.00 0.0 0.0615 
  60.00 0.0 0.0610 55.00 0.0 0.0735 50.00 0.0 0.1380 45.00 0.0 0.1695 40.00 0.0 0.2170 35.00 0.0 0.2725 30.00 0.0 0.2410 25.00 0.0 0.3705 20.00 0.0 0.5430 15.00 0.0 0.4155 
  10.0000 0.0 0.8370 5.0000 0.0 1.9215 0.0 0.0 1.2655 -5.0000 0.0 1.8770 -10.0000 0.0 0.5820 -15.00 0.0 0.5150 -20.00 0.0 0.5295 -25.00 0.0 0.3700 -30.00 0.0 0.2865 -35.00 0.0 0.2400 
  -40.00 0.0 0.1805 -45.00 0.0 0.1390 -50.00 0.0 0.0945 -55.00 0.0 0.0775 -60.00 0.0 0.0710 -65.00 0.0 0.0382 -70.00 0.0 0.0575 -80.00 0.0 0.0269 -85.00 0.0 0.0218 80.00 20.00 0.0605 
  75.00 20.00 0.0226 70.00 20.00 0.0481 65.00 20.00 0.0615 60.00 20.00 0.0525 55.00 20.00 0.0610 50.00 20.00 0.1140 45.00 20.00 0.1360 40.00 20.00 0.1685 35.00 20.00 0.2040 30.00 20.00 0.1730 
  25.00 20.00 0.2515 20.00 20.00 0.3385 15.00 20.00 0.2510 10.0000 20.00 0.3575 5.0000 20.00 0.5525 0.0 20.00 0.6785 -5.0000 20.00 0.5835 -10.0000 20.00 0.2550 -15.00 20.00 0.3270 -20.00 20.00 0.3505 
  -25.00 20.00 0.2645 -30.00 20.00 0.2190 -35.00 20.00 0.1910 -40.00 20.00 0.1485 -45.00 20.00 0.1145 -50.00 20.00 0.0795 -55.00 20.00 0.0660 -60.00 20.00 0.0620 -65.00 20.00 0.0342 -70.00 20.00 0.0443 
  -80.00 20.00 0.0269 -85.00 20.00 0.0218 80.00 40.00 0.0489 70.00 40.00 0.0381 65.00 40.00 0.0500 60.00 40.00 0.0424 55.00 40.00 0.0461 50.00 40.00 0.0835 45.00 40.00 0.0975 40.00 40.00 0.1165 
  35.00 40.00 0.1360 30.00 40.00 0.1110 25.00 40.00 0.1555 20.00 40.00 0.2000 15.00 40.00 0.1475 10.0000 40.00 0.2105 5.0000 40.00 0.2045 0.0 40.00 0.2050 -5.0000 40.00 0.2120 -10.0000 40.00 0.1545 
  -15.00 40.00 0.1960 -20.00 40.00 0.2145 -25.00 40.00 0.1695 -30.00 40.00 0.1465 -35.00 40.00 0.1335 -40.00 40.00 0.1080 -45.00 40.00 0.0860 -50.00 40.00 0.0610 -55.00 40.00 0.0515 -60.00 40.00 0.0500 
  -65.00 40.00 0.0278 -70.00 40.00 0.0247 -80.00 40.00 0.0421 -85.00 40.00 0.0218 80.00 60.00 0.0386 75.00 60.00 0.0590 70.00 60.00 0.0254 65.00 60.00 0.0417 60.00 60.00 0.0340 55.00 60.00 0.0333 
  50.00 60.00 0.0590 45.00 60.00 0.0670 40.00 60.00 0.0780 35.00 60.00 0.0885 30.00 60.00 0.0700 25.00 60.00 0.0965 20.00 60.00 0.1235 15.00 60.00 0.0870 10.0000 60.00 0.1350 5.0000 60.00 0.1335 
  0.0 60.00 0.0890 -5.0000 60.00 0.1365 -10.0000 60.00 0.0990 -15.00 60.00 0.1185 -20.00 60.00 0.1335 -25.00 60.00 0.1080 -30.00 60.00 0.0960 -35.00 60.00 0.0895 -40.00 60.00 0.0745 -45.00 60.00 0.0615 
  -50.00 60.00 0.0446 -55.00 60.00 0.0384 -60.00 60.00 0.0382 -65.00 60.00 0.0213 -70.00 60.00 0.0195 -80.00 60.00 0.0421 -85.00 60.00 0.0218 80.00 80.00 0.0256 75.00 80.00 0.0388 65.00 80.00 0.0300 
  60.00 80.00 0.0264 55.00 80.00 0.0235 50.00 80.00 0.0406 45.00 80.00 0.0455 40.00 80.00 0.0520 35.00 80.00 0.0580 30.00 80.00 0.0452 25.00 80.00 0.0620 20.00 80.00 0.0785 15.00 80.00 0.0550 
  10.0000 80.00 0.0835 5.0000 80.00 0.0820 0.0 80.00 0.0580 -5.0000 80.00 0.0870 -10.0000 80.00 0.0615 -15.00 80.00 0.0760 -20.00 80.00 0.0860 -25.00 80.00 0.0705 -30.00 80.00 0.0635 -35.00 80.00 0.0600 
  -40.00 80.00 0.0510 -45.00 80.00 0.0426 -50.00 80.00 0.0317 -55.00 80.00 0.0278 -60.00 80.00 0.0286 -80.00 80.00 0.0322 75.00 100.00 0.0249 65.00 100.00 0.0208 60.00 100.00 0.0202 50.00 100.00 0.0279 
  45.00 100.00 0.0311 40.00 100.00 0.0351 35.00 100.00 0.0386 30.00 100.00 0.0298 25.00 100.00 0.0409 20.00 100.00 0.0520 15.00 100.00 0.0360 10.0000 100.00 0.0555 5.0000 100.00 0.0545 0.0 100.00 0.0362 
  -5.0000 100.00 0.0570 -10.0000 100.00 0.0401 -15.00 100.00 0.0499 -20.00 100.00 0.0570 -25.00 100.00 0.0470 -30.00 100.00 0.0426 -35.00 100.00 0.0408 -40.00 100.00 0.0349 -45.00 100.00 0.0296 -50.00 100.00 0.0223 
  -55.00 100.00 0.0199 -60.00 100.00 0.0211 -80.00 100.00 0.0255 45.00 120.0 0.0214 40.00 120.0 0.0240 35.00 120.0 0.0262 30.00 120.0 0.0201 25.00 120.0 0.0277 20.00 120.0 0.0352 15.00 120.0 0.0243 
  10.0000 120.0 0.0376 5.0000 120.0 0.0370 0.0 120.0 0.0234 -5.0000 120.0 0.0389 -10.0000 120.0 0.0268 -15.00 120.0 0.0336 -20.00 120.0 0.0389 -25.00 120.0 0.0322 -30.00 120.0 0.0293 -35.00 120.0 0.0281 
  -40.00 120.0 0.0243 -45.00 120.0 0.0207 -80.00 120.0 0.0207 20.00 140.0 0.0244 10.0000 140.0 0.0261 5.0000 140.0 0.0258 -5.0000 140.0 0.0270 -15.00 140.0 0.0232 -20.00 140.0 0.0270 -25.00 140.0 0.0225 
  -30.00 140.0 0.0205 -35.00 140.0 0.0196 
  10.0000 20.00 5.0000 
END-PDD
PDD 'Well_1_3' 1182
  20.00 -160.0 0.0234 10.0000 -160.0 0.0245 5.0000 -160.0 0.0240 -5.0000 -160.0 0.0257 -15.00 -160.0 0.0225 -20.00 -160.0 0.0264 -25.00 -160.0 0.0215 -30.00 -160.0 0.0194 80.00 -140.0 0.0203 45.00 -140.0 0.0193 
  40.00 -140.0 0.0218 35.00 -140.0 0.0245 25.00 -140.0 0.0263 20.00 -140.0 0.0338 15.00 -140.0 0.0226 10.0000 -140.0 0.0355 5.0000 -140.0 0.0349 0.0 -140.0 0.0213 -5.0000 -140.0 0.0371 -10.0000 -140.0 0.0260 
  -15.00 -140.0 0.0327 -20.00 -140.0 0.0380 -25.00 -140.0 0.0310 -30.00 -140.0 0.0280 -35.00 -140.0 0.0269 -40.00 -140.0 0.0236 -45.00 -140.0 0.0209 50.00 -120.0 0.0275 45.00 -120.0 0.0291 40.00 -120.0 0.0327 
  35.00 -120.0 0.0366 30.00 -120.0 0.0279 25.00 -120.0 0.0391 20.00 -120.0 0.0500 15.00 -120.0 0.0338 10.0000 -120.0 0.0530 5.0000 -120.0 0.0520 0.0 -120.0 0.0332 -5.0000 -120.0 0.0550 -10.0000 -120.0 0.0390 
  -15.00 -120.0 0.0485 -20.00 -120.0 0.0560 -25.00 -120.0 0.0453 -30.00 -120.0 0.0410 -35.00 -120.0 0.0393 -40.00 -120.0 0.0340 -45.00 -120.0 0.0298 -50.00 -120.0 0.0225 -55.00 -120.0 0.0205 -60.00 -120.0 0.0220 
  85.00 -100.00 0.0240 80.00 -100.00 0.0355 65.00 -100.00 0.0238 60.00 -100.00 0.0269 55.00 -100.00 0.0264 50.00 -100.00 0.0408 45.00 -100.00 0.0439 40.00 -100.00 0.0496 35.00 -100.00 0.0555 30.00 -100.00 0.0426 
  25.00 -100.00 0.0595 20.00 -100.00 0.0760 15.00 -100.00 0.0520 10.0000 -100.00 0.0805 5.0000 -100.00 0.0795 0.0 -100.00 0.0535 -5.0000 -100.00 0.0835 -10.0000 -100.00 0.0600 -15.00 -100.00 0.0740 -20.00 -100.00 0.0840 
  -25.00 -100.00 0.0680 -30.00 -100.00 0.0610 -35.00 -100.00 0.0580 -40.00 -100.00 0.0497 -45.00 -100.00 0.0428 -50.00 -100.00 0.0320 -55.00 -100.00 0.0290 -60.00 -100.00 0.0303 -65.00 -100.00 0.0209 80.00 -80.00 0.0197 
  75.00 -80.00 0.0219 70.00 -80.00 0.0200 65.00 -80.00 0.0336 60.00 -80.00 0.0377 55.00 -80.00 0.0378 50.00 -80.00 0.0605 45.00 -80.00 0.0660 40.00 -80.00 0.0755 35.00 -80.00 0.0855 30.00 -80.00 0.0665 
  25.00 -80.00 0.0930 20.00 -80.00 0.1195 15.00 -80.00 0.0825 10.0000 -80.00 0.1270 5.0000 -80.00 0.1250 0.0 -80.00 0.0905 -5.0000 -80.00 0.1335 -10.0000 -80.00 0.0955 -15.00 -80.00 0.1160 -20.00 -80.00 0.1310 
  -25.00 -80.00 0.1045 -30.00 -80.00 0.0930 -35.00 -80.00 0.0870 -40.00 -80.00 0.0730 -45.00 -80.00 0.0615 -50.00 -80.00 0.0453 -55.00 -80.00 0.0405 -60.00 -80.00 0.0413 -65.00 -80.00 0.0284 -70.00 -80.00 0.0209 
  80.00 -60.00 0.0197 75.00 -60.00 0.0219 70.00 -60.00 0.0200 65.00 -60.00 0.0437 60.00 -60.00 0.0505 55.00 -60.00 0.0540 50.00 -60.00 0.0875 45.00 -60.00 0.0985 40.00 -60.00 0.1150 35.00 -60.00 0.1325 
  30.00 -60.00 0.1060 25.00 -60.00 0.1505 20.00 -60.00 0.1950 15.00 -60.00 0.1370 10.0000 -60.00 0.2180 5.0000 -60.00 0.2165 0.0 -60.00 0.1450 -5.0000 -60.00 0.2190 -10.0000 -60.00 0.1605 -15.00 -60.00 0.1890 
  -20.00 -60.00 0.2090 -25.00 -60.00 0.1645 -30.00 -60.00 0.1430 -35.00 -60.00 0.1305 -40.00 -60.00 0.1065 -45.00 -60.00 0.0875 -50.00 -60.00 0.0625 -55.00 -60.00 0.0550 -60.00 -60.00 0.0545 -65.00 -60.00 0.0369 